
                                 *****************
                                 * O   R   C   A *
                                 *****************

           --- An Ab Initio, DFT and Semiempirical electronic structure package ---

                  #######################################################
                  #                        -***-                        #
                  #  Department of molecular theory and spectroscopy    #
                  #              Directorship: Frank Neese              #
                  # Max Planck Institute for Chemical Energy Conversion #
                  #                  D-45470 Muelheim/Ruhr              #
                  #                       Germany                       #
                  #                                                     #
                  #                  All rights reserved                #
                  #                        -***-                        #
                  #######################################################


                         Program Version 3.0.3 - RELEASE   -


 With contributions from (in alphabetic order):
   Ute Becker             : Parallelization
   Dmytro Bykov           : SCF Hessian
   Dmitry Ganyushin       : Spin-Orbit,Spin-Spin,Magnetic field MRCI
   Andreas Hansen         : Spin unrestricted coupled pair/coupled cluster methods
   Dimitrios Liakos       : Extrapolation schemes; parallel MDCI
   Robert Izsak           : Overlap fitted RIJCOSX, COSX-SCS-MP3
   Christian Kollmar      : KDIIS, OOCD, Brueckner-CCSD(T), CCSD density
   Simone Kossmann        : Meta GGA functionals, TD-DFT gradient, OOMP2, MP2 Hessian
   Taras Petrenko         : DFT Hessian,TD-DFT gradient, ASA and ECA modules, normal mode analysis, Resonance Raman, ABS, FL, XAS/XES, NRVS
   Christoph Reimann      : Effective Core Potentials
   Michael Roemelt        : Restricted open shell CIS
   Christoph Riplinger    : Improved optimizer, TS searches, QM/MM, DLPNO-CCSD
   Barbara Sandhoefer     : DKH picture change effects
   Igor Schapiro          : Molecular dynamics
   Kantharuban Sivalingam : CASSCF convergence, NEVPT2
   Boris Wezisla          : Elementary symmetry handling
   Frank Wennmohs         : Technical directorship


 We gratefully acknowledge several colleagues who have allowed us to
 interface, adapt or use parts of their codes:
   Stefan Grimme, W. Hujo, H. Kruse, T. Risthaus : VdW corrections, initial TS optimization,
                                                   DFT functionals, gCP
   Ed Valeev                                     : LibInt (2-el integral package), F12 methods
   Garnet Chan, S. Sharma, R. Olivares           : DMRG
   Ulf Ekstrom                                   : XCFun DFT Library
   Mihaly Kallay                                 : mrcc  (arbitrary order and MRCC methods)
   Andreas Klamt, Michael Diedenhofen            : otool_cosmo (COSMO solvation model)
   Frank Weinhold                                : gennbo (NPA and NBO analysis)
   Christopher J. Cramer and Donald G. Truhlar   : smd solvation model


 Your calculation uses the libint2 library for the computation of 2-el integrals
 For citations please refer to: http://libint.valeyev.net

 This ORCA versions uses:
   CBLAS   interface :  Fast vector & matrix operations
   LAPACKE interface :  Fast linear algebra routines
   SCALAPACK package :  Parallel linear algebra routines


Your calculation utilizes the basis: Ahlrichs-VDZ
Cite in your paper:
H - Kr: A. Schaefer, H. Horn and R. Ahlrichs, J. Chem. Phys. 97, 2571 (1992).

Your calculation utilizes the basis: Ahlrichs SVPalls1+f
Cite in your paper:
Rb - Xe: A. Schaefer, C. Huber and R. Ahlrichs, J. Chem. Phys. 100, 5829 (1994).

================================================================================
                                        WARNINGS
                       Please study these warnings very carefully!
================================================================================
Now building the actual basis set

WARNING: Geometry Optimization
  ===> : Switching off AutoStart
         For restart on a previous wavefunction, please use MOREAD


INFO   : the flag for use of LIBINT has been found!

================================================================================
                                       INPUT FILE
================================================================================
NAME = orca-benzene.com
|  1> %MaxCore 4096
|  2> %pal nprocs 4 end
|  3> ! RKS B3LYP/G def2-svp opt freq
|  4> ! TightSCF freq Grid7 FinalGrid7
|  5> 
|  6> 
|  7> * xyz 0 1
|  8>  C                 -1.36314607   -2.47208137    0.00119900
|  9>  C                  0.03201393   -2.47208137    0.00119900
| 10>  C                  0.72955193   -1.26433037    0.00119900
| 11>  C                  0.03189793   -0.05582137    0.00000000
| 12>  C                 -1.36292707   -0.05589937   -0.00047900
| 13>  C                 -2.06052807   -1.26410537    0.00051700
| 14>  H                 -1.91290507   -3.42439837    0.00164900
| 15>  H                  0.58152193   -3.42459437    0.00251400
| 16>  H                  1.82923193   -1.26425037    0.00183300
| 17>  H                  0.58209793    0.89632163   -0.00005900
| 18>  H                 -1.91304907    0.89638163   -0.00143200
| 19>  H                 -3.16013207   -1.26392237    0.00033700
| 20> *
| 21> 
| 22> %output
| 23>        print[P_Hirshfeld] 1
| 24>        print[P_BondOrder_M] 1
| 25>        print[P_Mayer] 1
| 26>  end
| 27> 
| 28> 
| 29>                          ****END OF INPUT****
================================================================================

                       *****************************
                       * Geometry Optimization Run *
                       *****************************

Geometry optimization settings:
Update method            Update   .... BFGS
Choice of coordinates    CoordSys .... Redundant Internals
Initial Hessian          InHess   .... Almoef's Model

Convergence Tolerances:
Energy Change            TolE     ....  5.0000e-06 Eh
Max. Gradient            TolMAXG  ....  3.0000e-04 Eh/bohr
RMS Gradient             TolRMSG  ....  1.0000e-04 Eh/bohr
Max. Displacement        TolMAXD  ....  4.0000e-03 bohr
RMS Displacement         TolRMSD  ....  2.0000e-03 bohr

------------------------------------------------------------------------------
                        ORCA OPTIMIZATION COORDINATE SETUP
------------------------------------------------------------------------------

The optimization will be done in new redundant internal coordinates
Making redundant internal coordinates   ...  (new redundants) done
Evaluating the initial hessian          ...  (Almloef) done
Evaluating the coordinates              ...  done
Calculating the B-matrix                .... done
Calculating the G-matrix                .... done
Diagonalizing the G-matrix              .... done
The first mode is                       ....   24
The number of degrees of freedom        ....   30

    -----------------------------------------------------------------
                    Redundant Internal Coordinates


    -----------------------------------------------------------------
         Definition                    Initial Value    Approx d2E/dq
    -----------------------------------------------------------------
      1. B(C   1,C   0)                  1.3952         0.613064   
      2. B(C   2,C   1)                  1.3947         0.614074   
      3. B(C   3,C   2)                  1.3954         0.612463   
      4. B(C   4,C   3)                  1.3948         0.613819   
      5. B(C   5,C   4)                  1.3951         0.613114   
      6. B(C   5,C   0)                  1.3948         0.613810   
      7. B(H   6,C   0)                  1.0996         0.347609   
      8. B(H   7,C   1)                  1.0997         0.347551   
      9. B(H   8,C   2)                  1.0997         0.347519   
     10. B(H   9,C   3)                  1.0997         0.347519   
     11. B(H  10,C   4)                  1.0998         0.347416   
     12. B(H  11,C   5)                  1.0996         0.347617   
     13. A(C   1,C   0,C   5)          119.9985         0.432408   
     14. A(C   1,C   0,H   6)          119.9972         0.350143   
     15. A(C   5,C   0,H   6)          120.0043         0.350215   
     16. A(C   2,C   1,H   7)          120.0106         0.350230   
     17. A(C   0,C   1,C   2)          120.0086         0.432441   
     18. A(C   0,C   1,H   7)          119.9808         0.350133   
     19. A(C   3,C   2,H   8)          119.9930         0.350070   
     20. A(C   1,C   2,H   8)          120.0128         0.350225   
     21. A(C   1,C   2,C   3)          119.9942         0.432365   
     22. A(C   4,C   3,H   9)          120.0249         0.350200   
     23. A(C   2,C   3,H   9)          119.9811         0.350070   
     24. A(C   2,C   3,C   4)          119.9940         0.432333   
     25. A(C   3,C   4,H  10)          120.0113         0.350183   
     26. A(C   3,C   4,C   5)          120.0047         0.432415   
     27. A(C   5,C   4,H  10)          119.9840         0.350115   
     28. A(C   0,C   5,C   4)          120.0000         0.432414   
     29. A(C   4,C   5,H  11)          119.9920         0.350149   
     30. A(C   0,C   5,H  11)          120.0080         0.350216   
     31. D(H   7,C   1,C   0,C   5)    179.9532         0.025973   
     32. D(H   7,C   1,C   0,H   6)     -0.0520         0.025973   
     33. D(C   2,C   1,C   0,H   6)   -179.9729         0.025973   
     34. D(C   2,C   1,C   0,C   5)      0.0323         0.025973   
     35. D(H   8,C   2,C   1,C   0)    179.9619         0.026063   
     36. D(C   3,C   2,C   1,C   0)     -0.0568         0.026063   
     37. D(C   3,C   2,C   1,H   7)   -179.9777         0.026063   
     38. D(H   8,C   2,C   1,H   7)      0.0410         0.026063   
     39. D(H   9,C   3,C   2,H   8)     -0.0151         0.025919   
     40. D(H   9,C   3,C   2,C   1)   -179.9964         0.025919   
     41. D(C   4,C   3,C   2,H   8)   -179.9846         0.025919   
     42. D(C   4,C   3,C   2,C   1)      0.0341         0.025919   
     43. D(H  10,C   4,C   3,C   2)   -179.9995         0.026041   
     44. D(C   5,C   4,C   3,H   9)   -179.9563         0.026041   
     45. D(C   5,C   4,C   3,C   2)      0.0131         0.026041   
     46. D(H  10,C   4,C   3,H   9)      0.0311         0.026041   
     47. D(H  11,C   5,C   4,H  10)      0.0007         0.025977   
     48. D(C   0,C   5,C   4,H  10)    179.9750         0.025977   
     49. D(C   0,C   5,C   4,C   3)     -0.0376         0.025977   
     50. D(H  11,C   5,C   0,H   6)     -0.0056         0.026040   
     51. D(H  11,C   5,C   0,C   1)    179.9892         0.026040   
     52. D(H  11,C   5,C   4,C   3)    179.9881         0.025977   
     53. D(C   4,C   5,C   0,H   6)   -179.9798         0.026040   
     54. D(C   4,C   5,C   0,C   1)      0.0149         0.026040   
    -----------------------------------------------------------------

Number of atoms                         .... 12
Number of degrees of freedom            .... 54

         *************************************************************
         *                GEOMETRY OPTIMIZATION CYCLE   1            *
         *************************************************************
---------------------------------
CARTESIAN COORDINATES (ANGSTROEM)
---------------------------------
  C     -1.363146   -2.472081    0.001199
  C      0.032014   -2.472081    0.001199
  C      0.729552   -1.264330    0.001199
  C      0.031898   -0.055821    0.000000
  C     -1.362927   -0.055899   -0.000479
  C     -2.060528   -1.264105    0.000517
  H     -1.912905   -3.424398    0.001649
  H      0.581522   -3.424594    0.002514
  H      1.829232   -1.264250    0.001833
  H      0.582098    0.896322   -0.000059
  H     -1.913049    0.896382   -0.001432
  H     -3.160132   -1.263922    0.000337

----------------------------
CARTESIAN COORDINATES (A.U.)
----------------------------
  NO LB      ZA    FRAG    MASS        X           Y           Z
   0 C     6.0000    0    12.011         -2.575972752831048         -4.671556770068851          0.002265781634572
   1 C     6.0000    0    12.011          0.060497560170526         -4.671556770068851          0.002265781634572
   2 C     6.0000    0    12.011          1.378653348173688         -2.389238142099325          0.002265781634572
   3 C     6.0000    0    12.011          0.060278351938991         -0.105487101720288          0.000000000000000
   4 C     6.0000    0    12.011         -2.575558902807719         -0.105634500358734         -0.000905178818148
   5 C     6.0000    0    12.011         -3.893833743557319         -2.388812953719194          0.000976988411237
   6 H     1.0000    0     1.008         -3.614866702489461         -6.471175092746336          0.003116158394836
   7 H     1.0000    0     1.008          1.098917188569325         -6.471545479068585          0.004750771500678
   8 H     1.0000    0     1.008          3.456747383124210         -2.389086964008612          0.003463868003478
   9 H     1.0000    0     1.008          1.100005670822463          1.693802408609895         -0.000111493841901
  10 H     1.0000    0     1.008         -3.615138823052746          1.693915792177930         -0.002706087823775
  11 H     1.0000    0     1.008         -5.971784159321662         -2.388467133836686          0.000636837707131

--------------------------------
INTERNAL COORDINATES (ANGSTROEM)
--------------------------------
 C      0   0   0   0.000000     0.000     0.000
 C      1   0   0   1.395160     0.000     0.000
 C      2   1   0   1.394712   120.009     0.000
 C      3   2   1   1.395427   119.994   359.943
 C      4   3   2   1.394825   119.994     0.034
 C      1   2   3   1.394829   119.998     0.032
 H      1   2   3   1.099610   119.997   180.027
 H      2   1   3   1.099655   119.981   179.921
 H      3   2   1   1.099680   120.013   179.962
 H      4   3   2   1.099680   119.981   180.004
 H      5   4   3   1.099761   120.011   180.000
 H      6   1   2   1.099604   120.008   179.989

---------------------------
INTERNAL COORDINATES (A.U.)
---------------------------
 C      0   0   0   0.000000     0.000     0.000
 C      1   0   0   2.636470     0.000     0.000
 C      2   1   0   2.635624   120.009     0.000
 C      3   2   1   2.636975   119.994   359.943
 C      4   3   2   2.635837   119.994     0.034
 C      1   2   3   2.635845   119.998     0.032
 H      1   2   3   2.077962   119.997   180.027
 H      2   1   3   2.078047   119.981   179.921
 H      3   2   1   2.078094   120.013   179.962
 H      4   3   2   2.078094   119.981   180.004
 H      5   4   3   2.078247   120.011   180.000
 H      6   1   2   2.077950   120.008   179.989

---------------------
BASIS SET INFORMATION
---------------------
There are 2 groups of distinct atoms

 Group   1 Type C   : 7s4p1d contracted to 3s2p1d pattern {511/31/1}
 Group   2 Type H   : 4s1p contracted to 2s1p pattern {31/1}

Atom   0C    basis set group =>   1
Atom   1C    basis set group =>   1
Atom   2C    basis set group =>   1
Atom   3C    basis set group =>   1
Atom   4C    basis set group =>   1
Atom   5C    basis set group =>   1
Atom   6H    basis set group =>   2
Atom   7H    basis set group =>   2
Atom   8H    basis set group =>   2
Atom   9H    basis set group =>   2
Atom  10H    basis set group =>   2
Atom  11H    basis set group =>   2


           ************************************************************
           *        Program running with 4 parallel MPI-processes     *
           *              working on a common directory               *
           ************************************************************
------------------------------------------------------------------------------
                           ORCA GTO INTEGRAL CALCULATION
------------------------------------------------------------------------------

                         BASIS SET STATISTICS AND STARTUP INFO

 # of primitive gaussian shells          ...  102
 # of primitive gaussian functions       ...  186
 # of contracted shell                   ...   54
 # of contracted basis functions         ...  114
 Highest angular momentum                ...    2
 Maximum contraction depth               ...    5
 Integral package used                   ... LIBINT
 Integral threshhold            Thresh   ...  2.500e-11
 Primitive cut-off              TCut     ...  2.500e-12


                              INTEGRAL EVALUATION

 One electron integrals                  ... done
 Pre-screening matrix                    ... done
 Shell pair data                         ... done (   0.001 sec)

           ************************************************************
           *              Shut down parallel processing               *
           ************************************************************


           ************************************************************
           *        Program running with 4 parallel MPI-processes     *
           *              working on a common directory               *
           ************************************************************
-------------------------------------------------------------------------------
                                 ORCA SCF
-------------------------------------------------------------------------------

------------
SCF SETTINGS
------------
Hamiltonian:
 Density Functional     Method          .... DFT(GTOs)
 Exchange Functional    Exchange        .... B88
   X-Alpha parameter    XAlpha          ....  0.666667
   Becke's b parameter  XBeta           ....  0.004200
 Correlation Functional Correlation     .... LYP
 LDA part of GGA corr.  LDAOpt          .... VWN-3
 Gradients option       PostSCFGGA      .... off
 Hybrid DFT is turned on
   Fraction HF Exchange ScalHFX         ....  0.200000
   Scaling of DF-GGA-X  ScalDFX         ....  0.720000
   Scaling of DF-GGA-C  ScalDFC         ....  0.810000
   Scaling of DF-LDA-C  ScalLDAC        ....  1.000000
   Perturbative correction              ....  0.000000
   NL short-range parameter             ....  4.800000


General Settings:
 Integral files         IntName         .... orca-benzene
 Hartree-Fock type      HFTyp           .... RHF
 Total Charge           Charge          ....    0
 Multiplicity           Mult            ....    1
 Number of Electrons    NEL             ....   42
 Basis Dimension        Dim             ....  114
 Nuclear Repulsion      ENuc            ....    203.0307480985 Eh

Convergence Acceleration:
 DIIS                   CNVDIIS         .... on
   Start iteration      DIISMaxIt       ....    12
   Startup error        DIISStart       ....  0.200000
   # of expansion vecs  DIISMaxEq       ....     5
   Bias factor          DIISBfac        ....   1.050
   Max. coefficient     DIISMaxC        ....  10.000
 Newton-Raphson         CNVNR           .... off
 SOSCF                  CNVSOSCF        .... on
   Start iteration      SOSCFMaxIt      ....   150
   Startup grad/error   SOSCFStart      ....  0.003300
 Level Shifting         CNVShift        .... on
   Level shift para.    LevelShift      ....    0.2500
   Turn off err/grad.   ShiftErr        ....    0.0010
 Zerner damping         CNVZerner       .... off
 Static damping         CNVDamp         .... on
   Fraction old density DampFac         ....    0.7000
   Max. Damping (<1)    DampMax         ....    0.9800
   Min. Damping (>=0)   DampMin         ....    0.0000
   Turn off err/grad.   DampErr         ....    0.1000
 Fernandez-Rico         CNVRico         .... off

SCF Procedure:
 Maximum # iterations   MaxIter         ....   125
 SCF integral mode      SCFMode         .... Direct
   Integral package                     .... LIBINT
 Reset frequeny         DirectResetFreq ....    20
 Integral Threshold     Thresh          ....  2.500e-11 Eh
 Primitive CutOff       TCut            ....  2.500e-12 Eh

Convergence Tolerance:
 Convergence Check Mode ConvCheckMode   .... Total+1el-Energy
 Energy Change          TolE            ....  1.000e-08 Eh
 1-El. energy change                    ....  1.000e-05 Eh
 Orbital Gradient       TolG            ....  1.000e-05
 Orbital Rotation angle TolX            ....  1.000e-05
 DIIS Error             TolErr          ....  5.000e-07


Diagonalization of the overlap matrix:
Smallest eigenvalue                        ... 3.149e-04
Time for diagonalization                   ...    0.089 sec
Threshold for overlap eigenvalues          ... 1.000e-08
Number of eigenvalues below threshold      ... 0
Time for construction of square roots      ...    0.003 sec
Total time needed                          ...    0.093 sec

-------------------
DFT GRID GENERATION
-------------------

General Integration Accuracy     IntAcc      ...  5.670
Radial Grid Type                 RadialGrid  ... Gauss-Chebyshev
Angular Grid (max. acc.)         AngularGrid ... Lebedev-770
Angular grid pruning method      GridPruning ... 3 (G Style)
Weight generation scheme         WeightScheme... Becke
Basis function cutoff            BFCut       ...    1.0000e-11
Integration weight cutoff        WCut        ...    1.0000e-14
Grids for H and He will be reduced by one unit

# of grid points (after initial pruning)     ... 257220 (   0.0 sec)
# of grid points (after weights+screening)   ... 237354 (   0.3 sec)
nearest neighbour list constructed           ...    0.0 sec
Grid point re-assignment to atoms done       ...    0.1 sec
Grid point division into batches done        ...    7.8 sec
Reduced shell lists constructed in    8.3 sec

Total number of grid points                  ...   237354
Total number of batches                      ...     3716
Average number of points per batch           ...       63
Average number of grid points per atom       ...    19780
Average number of shells per batch           ...    46.19 (85.55%)
Average number of basis functions per batch  ...    99.44 (87.23%)
Average number of large shells per batch     ...    39.30 (85.07%)
Average number of large basis fcns per batch ...    83.59 (84.06%)
Maximum spatial batch extension              ...   3.57,  3.74, 13.78 au
Average spatial batch extension              ...   0.20,  0.21,  0.25 au

Time for grid setup =    9.011 sec

------------------------------
INITIAL GUESS: MODEL POTENTIAL
------------------------------
Loading Hartree-Fock densities                     ... done
Calculating cut-offs                               ... done
Setting up the integral package                    ... done
Initializing the effective Hamiltonian             ... done
Starting the Coulomb interaction                   ... done (   0.0 sec)
Reading the grid                                   ... done
Mapping shells                                     ... done
Starting the XC term evaluation                    ... done (   1.2 sec)
  promolecular density results
     # of electrons  =     41.997063922
     EX              =    -32.593413884
     EC              =     -1.376159167
     EX+EC           =    -33.969573051
Transforming the Hamiltonian                       ... done (   0.0 sec)
Diagonalizing the Hamiltonian                      ... done (   0.0 sec)
Back transforming the eigenvectors                 ... done (   0.0 sec)
Now organizing SCF variables                       ... done
                      ------------------
                      INITIAL GUESS DONE (  10.5 sec)
                      ------------------
--------------
SCF ITERATIONS
--------------
ITER       Energy         Delta-E        Max-DP      RMS-DP      [F,P]     Damp
               ***  Starting incremental Fock matrix formation  ***
  0   -231.9510329213   0.000000000000 0.04904274  0.00304467  0.1227900 0.7000
  1   -232.0106129133  -0.059579992075 0.03284709  0.00218957  0.0626399 0.7000
                               ***Turning on DIIS***
  2   -232.0369601423  -0.026347228911 0.05329683  0.00393094  0.0273612 0.0000
  3   -232.0740499344  -0.037089792143 0.01985291  0.00124485  0.0393808 0.0000
  4   -232.0839822171  -0.009932282707 0.00536318  0.00031711  0.0079723 0.0000
                      *** Initiating the SOSCF procedure ***
                           *** Shutting down DIIS ***
                      *** Re-Reading the Fockian *** 
                      *** Removing any level shift *** 
ITER      Energy       Delta-E        Grad      Rot      Max-DP    RMS-DP
  5   -232.08446312  -0.0004809033  0.000870  0.000870  0.001958  0.000121
               *** Restarting incremental Fock matrix formation ***
  6   -232.08449235  -0.0000292305  0.000377  0.000727  0.001225  0.000075
  7   -232.08449314  -0.0000007917  0.000300  0.000210  0.000316  0.000021
  8   -232.08449464  -0.0000014950  0.000031  0.000030  0.000073  0.000005
  9   -232.08449465  -0.0000000136  0.000013  0.000009  0.000037  0.000002
                 **** Energy Check signals convergence ****
              ***Rediagonalizing the Fockian in SOSCF/NRSCF***

               *****************************************************
               *                     SUCCESS                       *
               *           SCF CONVERGED AFTER  10 CYCLES          *
               *****************************************************


----------------
TOTAL SCF ENERGY
----------------

Total Energy       :         -232.08449466 Eh           -6315.34017 eV

Components:
Nuclear Repulsion  :          203.03074810 Eh            5524.74753 eV
Electronic Energy  :         -435.11524275 Eh          -11840.08769 eV

One Electron Energy:         -713.01763987 Eh          -19402.19637 eV
Two Electron Energy:          277.90239712 Eh            7562.10868 eV

Virial components:
Potential Energy   :         -461.41030203 Eh          -12555.61263 eV
Kinetic Energy     :          229.32580738 Eh            6240.27247 eV
Virial Ratio       :            2.01202955


DFT components:
N(Alpha)           :       20.999999907808 electrons
N(Beta)            :       20.999999907808 electrons
N(Total)           :       41.999999815616 electrons
E(X)               :      -26.302874233023 Eh       
E(C)               :       -1.786342269608 Eh       
E(XC)              :      -28.089216502631 Eh       

---------------
SCF CONVERGENCE
---------------

  Last Energy change         ...   -3.9843e-09  Tolerance :   1.0000e-08
  Last MAX-Density change    ...    4.2738e-05  Tolerance :   1.0000e-07
  Last RMS-Density change    ...    2.0252e-06  Tolerance :   5.0000e-09
  Last Orbital Gradient      ...    1.7802e-06  Tolerance :   1.0000e-05
  Last Orbital Rotation      ...    6.7599e-06  Tolerance :   1.0000e-05

             **** THE GBW FILE WAS UPDATED (orca-benzene.gbw) ****
             **** DENSITY FILE WAS UPDATED (orca-benzene.scfp.tmp) ****
             **** ENERGY FILE WAS UPDATED (orca-benzene.en.tmp) ****
----------------
ORBITAL ENERGIES
----------------

  NO   OCC          E(Eh)            E(eV) 
   0   2.0000     -10.191726      -277.3310 
   1   2.0000     -10.191565      -277.3266 
   2   2.0000     -10.191560      -277.3265 
   3   2.0000     -10.191160      -277.3156 
   4   2.0000     -10.191149      -277.3153 
   5   2.0000     -10.191029      -277.3120 
   6   2.0000      -0.847205       -23.0536 
   7   2.0000      -0.737863       -20.0783 
   8   2.0000      -0.737829       -20.0773 
   9   2.0000      -0.596517       -16.2321 
  10   2.0000      -0.596477       -16.2310 
  11   2.0000      -0.521130       -14.1807 
  12   2.0000      -0.454088       -12.3564 
  13   2.0000      -0.449722       -12.2376 
  14   2.0000      -0.421496       -11.4695 
  15   2.0000      -0.421481       -11.4691 
  16   2.0000      -0.369829       -10.0636 
  17   2.0000      -0.345702        -9.4070 
  18   2.0000      -0.345630        -9.4051 
  19   2.0000      -0.256695        -6.9850 
  20   2.0000      -0.256658        -6.9840 
  21   0.0000      -0.008424        -0.2292 
  22   0.0000      -0.008373        -0.2278 
  23   0.0000       0.055494         1.5101 
  24   0.0000       0.097546         2.6544 
  25   0.0000       0.097560         2.6547 
  26   0.0000       0.136228         3.7070 
  27   0.0000       0.136240         3.7073 
  28   0.0000       0.149856         4.0778 
  29   0.0000       0.156579         4.2607 
  30   0.0000       0.287836         7.8324 
  31   0.0000       0.287888         7.8338 
  32   0.0000       0.300845         8.1864 
  33   0.0000       0.300931         8.1887 
  34   0.0000       0.365381         9.9425 
  35   0.0000       0.407199        11.0805 
  36   0.0000       0.418072        11.3763 
  37   0.0000       0.418076        11.3764 
  38   0.0000       0.433112        11.7856 
  39   0.0000       0.462695        12.5906 
  40   0.0000       0.469835        12.7849 
  41   0.0000       0.502103        13.6629 
  42   0.0000       0.502156        13.6644 
  43   0.0000       0.537390        14.6231 
  44   0.0000       0.537412        14.6237 
  45   0.0000       0.541753        14.7418 
  46   0.0000       0.601287        16.3619 
  47   0.0000       0.601304        16.3623 
  48   0.0000       0.630963        17.1694 
  49   0.0000       0.630996        17.1703 
  50   0.0000       0.666183        18.1278 
  51   0.0000       0.666192        18.1280 
  52   0.0000       0.672727        18.3058 
  53   0.0000       0.725259        19.7353 
  54   0.0000       0.725323        19.7370 
  55   0.0000       0.735396        20.0111 
  56   0.0000       0.738096        20.0846 
  57   0.0000       0.773060        21.0360 
  58   0.0000       0.773161        21.0388 
  59   0.0000       0.835370        22.7316 
  60   0.0000       0.893726        24.3195 
  61   0.0000       1.023591        27.8533 
  62   0.0000       1.023625        27.8543 
  63   0.0000       1.154793        31.4235 
  64   0.0000       1.245401        33.8891 
  65   0.0000       1.245404        33.8892 
  66   0.0000       1.251225        34.0476 
  67   0.0000       1.264834        34.4179 
  68   0.0000       1.264871        34.4189 
  69   0.0000       1.306821        35.5604 
  70   0.0000       1.306869        35.5617 
  71   0.0000       1.514836        41.2208 
  72   0.0000       1.631795        44.4034 
  73   0.0000       1.648168        44.8489 
  74   0.0000       1.667655        45.3792 
  75   0.0000       1.739234        47.3270 
  76   0.0000       1.739275        47.3281 
  77   0.0000       1.742160        47.4066 
  78   0.0000       1.754117        47.7319 
  79   0.0000       1.754156        47.7330 
  80   0.0000       1.758338        47.8468 
  81   0.0000       1.758399        47.8485 
  82   0.0000       1.825285        49.6685 
  83   0.0000       1.825379        49.6711 
  84   0.0000       1.922312        52.3088 
  85   0.0000       1.974257        53.7223 
  86   0.0000       1.974292        53.7232 
  87   0.0000       1.974936        53.7407 
  88   0.0000       1.975999        53.7697 
  89   0.0000       1.976074        53.7717 
  90   0.0000       2.113805        57.5196 
  91   0.0000       2.124034        57.7979 
  92   0.0000       2.139297        58.2132 
  93   0.0000       2.139335        58.2143 
  94   0.0000       2.302581        62.6564 
  95   0.0000       2.302820        62.6629 
  96   0.0000       2.303172        62.6725 
  97   0.0000       2.303206        62.6734 
  98   0.0000       2.344147        63.7875 
  99   0.0000       2.344220        63.7895 
 100   0.0000       2.553532        69.4851 
 101   0.0000       2.598341        70.7045 
 102   0.0000       2.598440        70.7072 
 103   0.0000       2.651211        72.1431 
 104   0.0000       2.702941        73.5508 
 105   0.0000       2.704574        73.5952 
 106   0.0000       2.704646        73.5971 
 107   0.0000       2.858176        77.7749 
 108   0.0000       2.858322        77.7789 
 109   0.0000       2.885734        78.5248 
 110   0.0000       3.111301        84.6628 
 111   0.0000       3.111380        84.6649 
 112   0.0000       3.238717        88.1300 
 113   0.0000       3.656991        99.5118 

                    ********************************
                    * MULLIKEN POPULATION ANALYSIS *
                    ********************************

-----------------------
MULLIKEN ATOMIC CHARGES
-----------------------
   0 C :    0.013409
   1 C :    0.013424
   2 C :    0.013373
   3 C :    0.013358
   4 C :    0.013403
   5 C :    0.013396
   6 H :   -0.013421
   7 H :   -0.013410
   8 H :   -0.013379
   9 H :   -0.013371
  10 H :   -0.013357
  11 H :   -0.013424
Sum of atomic charges:    0.0000000

--------------------------------
MULLIKEN REDUCED ORBITAL CHARGES
--------------------------------
  0 C s       :     3.159856  s :     3.159856
      pz      :     0.986691  p :     2.791788
      px      :     0.931869
      py      :     0.873228
      dz2     :     0.002511  d :     0.034947
      dxz     :     0.005373
      dyz     :     0.003350
      dx2y2   :     0.011284
      dxy     :     0.012428
  1 C s       :     3.159812  s :     3.159812
      pz      :     0.986691  p :     2.791813
      px      :     0.931920
      py      :     0.873202
      dz2     :     0.002512  d :     0.034951
      dxz     :     0.005375
      dyz     :     0.003351
      dx2y2   :     0.011287
      dxy     :     0.012427
  2 C s       :     3.159910  s :     3.159910
      pz      :     0.986688  p :     2.791777
      px      :     0.843912
      py      :     0.961177
      dz2     :     0.002511  d :     0.034940
      dxz     :     0.002335
      dyz     :     0.006387
      dx2y2   :     0.012998
      dxy     :     0.010709
  3 C s       :     3.159954  s :     3.159954
      pz      :     0.986683  p :     2.791753
      px      :     0.931760
      py      :     0.873310
      dz2     :     0.002511  d :     0.034935
      dxz     :     0.005376
      dyz     :     0.003344
      dx2y2   :     0.011276
      dxy     :     0.012427
  4 C s       :     3.159855  s :     3.159855
      pz      :     0.986695  p :     2.791795
      px      :     0.931793
      py      :     0.873308
      dz2     :     0.002512  d :     0.034946
      dxz     :     0.005378
      dyz     :     0.003347
      dx2y2   :     0.011280
      dxy     :     0.012429
  5 C s       :     3.159853  s :     3.159853
      pz      :     0.986688  p :     2.791803
      px      :     0.843918
      py      :     0.961197
      dz2     :     0.002511  d :     0.034948
      dxz     :     0.002335
      dyz     :     0.006389
      dx2y2   :     0.013002
      dxy     :     0.010711
  6 H s       :     0.991043  s :     0.991043
      pz      :     0.004588  p :     0.022378
      px      :     0.006067
      py      :     0.011723
  7 H s       :     0.991034  s :     0.991034
      pz      :     0.004587  p :     0.022376
      px      :     0.006064
      py      :     0.011725
  8 H s       :     0.991004  s :     0.991004
      pz      :     0.004587  p :     0.022374
      px      :     0.014548
      py      :     0.003239
  9 H s       :     0.990997  s :     0.990997
      pz      :     0.004587  p :     0.022374
      px      :     0.006070
      py      :     0.011717
 10 H s       :     0.990986  s :     0.990986
      pz      :     0.004586  p :     0.022372
      px      :     0.006068
      py      :     0.011718
 11 H s       :     0.991045  s :     0.991045
      pz      :     0.004588  p :     0.022378
      px      :     0.014550
      py      :     0.003240

------------------------
MULLIKEN OVERLAP CHARGES
------------------------
B(  0-C ,  1-C ) :   0.5266 B(  0-C ,  2-C ) :   0.2071 B(  0-C ,  3-C ) :  -0.3142 
B(  0-C ,  4-C ) :   0.2071 B(  0-C ,  5-C ) :   0.5269 B(  0-C ,  6-H ) :   0.8727 
B(  0-C ,  7-H ) :  -0.1465 B(  0-C , 11-H ) :  -0.1465 B(  1-C ,  2-C ) :   0.5269 
B(  1-C ,  3-C ) :   0.2071 B(  1-C ,  4-C ) :  -0.3142 B(  1-C ,  5-C ) :   0.2072 
B(  1-C ,  6-H ) :  -0.1465 B(  1-C ,  7-H ) :   0.8726 B(  1-C ,  8-H ) :  -0.1465 
B(  2-C ,  3-C ) :   0.5268 B(  2-C ,  4-C ) :   0.2071 B(  2-C ,  5-C ) :  -0.3141 
B(  2-C ,  7-H ) :  -0.1466 B(  2-C ,  8-H ) :   0.8726 B(  2-C ,  9-H ) :  -0.1464 
B(  3-C ,  4-C ) :   0.5268 B(  3-C ,  5-C ) :   0.2071 B(  3-C ,  8-H ) :  -0.1464 
B(  3-C ,  9-H ) :   0.8726 B(  3-C , 10-H ) :  -0.1465 B(  4-C ,  5-C ) :   0.5267 
B(  4-C ,  9-H ) :  -0.1465 B(  4-C , 10-H ) :   0.8726 B(  4-C , 11-H ) :  -0.1465 
B(  5-C ,  6-H ) :  -0.1465 B(  5-C , 10-H ) :  -0.1464 B(  5-C , 11-H ) :   0.8727 



                     *******************************
                     * LOEWDIN POPULATION ANALYSIS *
                     *******************************

----------------------
LOEWDIN ATOMIC CHARGES
----------------------
   0 C :   -0.027712
   1 C :   -0.027736
   2 C :   -0.027711
   3 C :   -0.027696
   4 C :   -0.027742
   5 C :   -0.027717
   6 H :    0.027711
   7 H :    0.027716
   8 H :    0.027722
   9 H :    0.027719
  10 H :    0.027737
  11 H :    0.027709

-------------------------------
LOEWDIN REDUCED ORBITAL CHARGES
-------------------------------
  0 C s       :     2.863667  s :     2.863667
      pz      :     0.968704  p :     3.073616
      px      :     1.061026
      py      :     1.043886
      dz2     :     0.006127  d :     0.090429
      dxz     :     0.011265
      dyz     :     0.006341
      dx2y2   :     0.032005
      dxy     :     0.034691
  1 C s       :     2.863651  s :     2.863651
      pz      :     0.968700  p :     3.073641
      px      :     1.061041
      py      :     1.043901
      dz2     :     0.006128  d :     0.090444
      dxz     :     0.011268
      dyz     :     0.006343
      dx2y2   :     0.032015
      dxy     :     0.034690
  2 C s       :     2.863722  s :     2.863722
      pz      :     0.968706  p :     3.073582
      px      :     1.035209
      py      :     1.069667
      dz2     :     0.006126  d :     0.090407
      dxz     :     0.003871
      dyz     :     0.013730
      dx2y2   :     0.036034
      dxy     :     0.030646
  3 C s       :     2.863748  s :     2.863748
      pz      :     0.968707  p :     3.073556
      px      :     1.061099
      py      :     1.043751
      dz2     :     0.006125  d :     0.090392
      dxz     :     0.011270
      dyz     :     0.006328
      dx2y2   :     0.031971
      dxy     :     0.034698
  4 C s       :     2.863698  s :     2.863698
      pz      :     0.968711  p :     3.073616
      px      :     1.061115
      py      :     1.043791
      dz2     :     0.006127  d :     0.090427
      dxz     :     0.011274
      dyz     :     0.006334
      dx2y2   :     0.031989
      dxy     :     0.034704
  5 C s       :     2.863662  s :     2.863662
      pz      :     0.968698  p :     3.073622
      px      :     1.035225
      py      :     1.069700
      dz2     :     0.006128  d :     0.090433
      dxz     :     0.003872
      dyz     :     0.013736
      dx2y2   :     0.036047
      dxy     :     0.030651
  6 H s       :     0.907050  s :     0.907050
      pz      :     0.013694  p :     0.065239
      px      :     0.018141
      py      :     0.033404
  7 H s       :     0.907055  s :     0.907055
      pz      :     0.013691  p :     0.065229
      px      :     0.018131
      py      :     0.033408
  8 H s       :     0.907050  s :     0.907050
      pz      :     0.013690  p :     0.065228
      px      :     0.041033
      py      :     0.010506
  9 H s       :     0.907052  s :     0.907052
      pz      :     0.013690  p :     0.065229
      px      :     0.018145
      py      :     0.033394
 10 H s       :     0.907051  s :     0.907051
      pz      :     0.013685  p :     0.065212
      px      :     0.018138
      py      :     0.033390
 11 H s       :     0.907052  s :     0.907052
      pz      :     0.013694  p :     0.065239
      px      :     0.041036
      py      :     0.010510


                      *****************************
                      * MAYER POPULATION ANALYSIS *
                      *****************************

  NA   - Mulliken gross atomic population
  ZA   - Total nuclear charge
  QA   - Mulliken gross atomic charge
  VA   - Mayer's total valence
  BVA  - Mayer's bonded valence
  FA   - Mayer's free valence

  ATOM       NA         ZA         QA         VA         BVA        FA
  0 C      5.9866     6.0000     0.0134     3.8546     3.8546     0.0000
  1 C      5.9866     6.0000     0.0134     3.8546     3.8546     0.0000
  2 C      5.9866     6.0000     0.0134     3.8546     3.8546    -0.0000
  3 C      5.9866     6.0000     0.0134     3.8545     3.8545     0.0000
  4 C      5.9866     6.0000     0.0134     3.8545     3.8545     0.0000
  5 C      5.9866     6.0000     0.0134     3.8546     3.8546    -0.0000
  6 H      1.0134     1.0000    -0.0134     0.9774     0.9774     0.0000
  7 H      1.0134     1.0000    -0.0134     0.9774     0.9774    -0.0000
  8 H      1.0134     1.0000    -0.0134     0.9775     0.9775     0.0000
  9 H      1.0134     1.0000    -0.0134     0.9775     0.9775    -0.0000
 10 H      1.0134     1.0000    -0.0134     0.9774     0.9774    -0.0000
 11 H      1.0134     1.0000    -0.0134     0.9774     0.9774    -0.0000

  Mayer bond orders larger than 0.1
B(  0-C ,  1-C ) :   1.3928 B(  0-C ,  5-C ) :   1.3938 B(  0-C ,  6-H ) :   0.9831 
B(  1-C ,  2-C ) :   1.3938 B(  1-C ,  7-H ) :   0.9831 B(  2-C ,  3-C ) :   1.3927 
B(  2-C ,  8-H ) :   0.9831 B(  3-C ,  4-C ) :   1.3937 B(  3-C ,  9-H ) :   0.9831 
B(  4-C ,  5-C ) :   1.3928 B(  4-C , 10-H ) :   0.9831 B(  5-C , 11-H ) :   0.9831 



------------------
HIRSHFELD ANALYSIS
------------------

Total integrated alpha density =     20.999999908
Total integrated beta density  =     20.999999908

  ATOM     CHARGE      SPIN                 
   0 C   -0.033851    0.000000         
   1 C   -0.033866    0.000000         
   2 C   -0.033842    0.000000         
   3 C   -0.033835    0.000000         
   4 C   -0.033856    0.000000         
   5 C   -0.033857    0.000000         
   6 H    0.033853    0.000000         
   7 H    0.033842    0.000000         
   8 H    0.033857    0.000000         
   9 H    0.033853    0.000000         
  10 H    0.033848    0.000000         
  11 H    0.033852    0.000000         

  TOTAL   0.000000    0.000000         

-------
TIMINGS
-------

Total SCF time: 0 days 0 hours 0 min 27 sec 

Total time                  ....      27.277 sec
Sum of individual times     ....      46.622 sec  (170.9%)

Fock matrix formation       ....      25.856 sec  ( 94.8%)
  Coulomb formation         ....      12.036 sec  ( 46.5% of F)
  XC integration            ....      13.881 sec  ( 53.7% of F)
    Basis function eval.    ....       3.560 sec  ( 25.6% of XC)
    Density eval.           ....       2.505 sec  ( 18.0% of XC)
    XC-Functional eval.     ....       0.957 sec  (  6.9% of XC)
    XC-Potential eval.      ....       2.453 sec  ( 17.7% of XC)
Diagonalization             ....       0.040 sec  (  0.1%)
Density matrix formation    ....       0.103 sec  (  0.4%)
Population analysis         ....       1.086 sec  (  4.0%)
Initial guess               ....      10.482 sec  ( 38.4%)
Orbital Transformation      ....       0.000 sec  (  0.0%)
Orbital Orthonormalization  ....       0.000 sec  (  0.0%)
DIIS solution               ....       0.013 sec  (  0.0%)
SOSCF solution              ....       0.031 sec  (  0.1%)
Grid generation             ....       9.011 sec  ( 33.0%)
           ************************************************************
           *              Shut down parallel processing               *
           ************************************************************

-------------------------   --------------------
FINAL SINGLE POINT ENERGY      -232.084494655168
-------------------------   --------------------



           ************************************************************
           *        Program running with 4 parallel MPI-processes     *
           *              working on a common directory               *
           ************************************************************
------------------------------------------------------------------------------
                         ORCA SCF GRADIENT CALCULATION
------------------------------------------------------------------------------

Gradient of the Kohn-Sham DFT energy:
Kohn-Sham wavefunction type      ... RKS
Hartree-Fock exchange scaling    ...    0.200
Number of operators              ...    1
Number of atoms                  ...   12
Basis set dimensions             ...  114
Integral neglect threshold       ... 2.5e-11
Integral primitive cutoff        ... 2.5e-12

Nuclear repulsion gradient       ... done
One Electron Gradient            ... done
Pre-screening matrix             ... done
Starting the two electron gradient:
Two electron gradient done
Exchange-correlation gradient    ... done

------------------
CARTESIAN GRADIENT
------------------

   1   C   :    0.003820473    0.006838848    0.000018361
   2   C   :   -0.003781989    0.006998962   -0.000125003
   3   C   :   -0.007798933   -0.000397672    0.000056311
   4   C   :   -0.004186959   -0.006559229   -0.000035135
   5   C   :    0.004075845   -0.006846695   -0.000014627
   6   C   :    0.007841727   -0.000110720    0.000057122
   7   H   :   -0.002078473   -0.003596435   -0.000003704
   8   H   :    0.002069974   -0.003627723    0.000042703
   9   H   :    0.004200653    0.000004127    0.000003675
  10   H   :    0.002128938    0.003621549    0.000017882
  11   H   :   -0.002142673    0.003667111   -0.000011202
  12   H   :   -0.004148584    0.000007877   -0.000006383

Norm of the cartesian gradient     ...    0.021827823
RMS gradient                       ...    0.003637971
MAX gradient                       ...    0.007841727

-------
TIMINGS
-------

Total SCF gradient time            ...       13.934 sec

One electron gradient       ....       0.048 sec  (  0.3%)
Prescreening matrices       ....       0.042 sec  (  0.3%)
Two electron gradient       ....       4.440 sec  ( 31.9%)
XC gradient                 ....       9.107 sec  ( 65.4%)
           ************************************************************
           *              Shut down parallel processing               *
           ************************************************************
------------------------------------------------------------------------------
                         ORCA GEOMETRY RELAXATION STEP
------------------------------------------------------------------------------

Reading the OPT-File                    .... done
Getting information on internals        .... done
Copying old internal coords+grads       .... done
Making the new internal coordinates     .... (new redundants).... done
Validating the new internal coordinates .... (new redundants).... done
Calculating the B-matrix                .... done
Calculating the G,G- and P matrices     .... done
Transforming gradient to internals      .... done
Projecting the internal gradient        .... done
Number of atoms                         ....  12
Number of internal coordinates          ....  54
Current Energy                          ....  -232.084494655 Eh
Current gradient norm                   ....     0.021827823 Eh/bohr
Maximum allowed component of the step   ....  0.300
Current trust radius                    ....  0.300
Evaluating the initial hessian          ....  (Almloef) done
Projecting the Hessian                  .... done
Forming the augmented Hessian           .... done
Diagonalizing the augmented Hessian     .... done
Last element of RFO vector              ....  0.999454799
Lowest eigenvalues of augmented Hessian:
 -0.000434720  0.025959402  0.025979835  0.025990513  0.025999535
Length of the computed step             ....  0.033034754
The final length of the internal step   ....  0.033034754
Converting the step to cartesian space:
 Initial RMS(Int)=    0.0044954606
Transforming coordinates:
 Iter   0:  RMS(Cart)=    0.0034893764 RMS(Int)=    2.2620558155
 Iter   1:  RMS(Cart)=    0.0000011046 RMS(Int)=    0.0000011925
 Iter   2:  RMS(Cart)=    0.0000000054 RMS(Int)=    0.0000000053
done
Storing new coordinates                 .... done

                                .--------------------.
          ----------------------|Geometry convergence|---------------------
          Item                value                 Tolerance   Converged
          -----------------------------------------------------------------
          RMS gradient        0.00185757            0.00010000      NO
          MAX gradient        0.00424716            0.00030000      NO
          RMS step            0.00449546            0.00200000      NO
          MAX step            0.01220972            0.00400000      NO
          ....................................................
          Max(Bonds)      0.0065      Max(Angles)    0.01
          Max(Dihed)        0.06      Max(Improp)    0.00
          -----------------------------------------------------------------

The optimization has not yet converged - more geometry cycles are needed


    ---------------------------------------------------------------------------
                         Redundant Internal Coordinates
                            (Angstroem and degrees)

        Definition                    Value    dE/dq     Step     New-Value
    ----------------------------------------------------------------------------
     1. B(C   1,C   0)                1.3952 -0.003617  0.0031    1.3983   
     2. B(C   2,C   1)                1.3947 -0.003856  0.0033    1.3980   
     3. B(C   3,C   2)                1.3954 -0.003410  0.0029    1.3984   
     4. B(C   4,C   3)                1.3948 -0.003752  0.0032    1.3981   
     5. B(C   5,C   4)                1.3951 -0.003644  0.0031    1.3983   
     6. B(C   5,C   0)                1.3948 -0.003761  0.0032    1.3981   
     7. B(H   6,C   0)                1.0996  0.004154 -0.0063    1.0933   
     8. B(H   7,C   1)                1.0997  0.004177 -0.0064    1.0933   
     9. B(H   8,C   2)                1.0997  0.004201 -0.0064    1.0933   
    10. B(H   9,C   3)                1.0997  0.004201 -0.0064    1.0933   
    11. B(H  10,C   4)                1.0998  0.004247 -0.0065    1.0933   
    12. B(H  11,C   5)                1.0996  0.004149 -0.0063    1.0933   
    13. A(C   1,C   0,C   5)          120.00  0.000013   -0.00    120.00   
    14. A(C   1,C   0,H   6)          120.00 -0.000005    0.00    120.00   
    15. A(C   5,C   0,H   6)          120.00 -0.000009    0.00    120.01   
    16. A(C   2,C   1,H   7)          120.01  0.000006   -0.00    120.01   
    17. A(C   0,C   1,C   2)          120.01  0.000030   -0.00    120.00   
    18. A(C   0,C   1,H   7)          119.98 -0.000036    0.01    119.99   
    19. A(C   3,C   2,H   8)          119.99  0.000011   -0.00    119.99   
    20. A(C   1,C   2,H   8)          120.01  0.000019   -0.00    120.01   
    21. A(C   1,C   2,C   3)          119.99 -0.000030    0.00    120.00   
    22. A(C   4,C   3,H   9)          120.02  0.000046   -0.01    120.02   
    23. A(C   2,C   3,H   9)          119.98 -0.000019    0.00    119.99   
    24. A(C   2,C   3,C   4)          119.99 -0.000026    0.00    120.00   
    25. A(C   3,C   4,H  10)          120.01  0.000019   -0.00    120.01   
    26. A(C   3,C   4,C   5)          120.00  0.000005   -0.00    120.00   
    27. A(C   5,C   4,H  10)          119.98 -0.000024    0.00    119.99   
    28. A(C   0,C   5,C   4)          120.00  0.000008   -0.00    120.00   
    29. A(C   4,C   5,H  11)          119.99 -0.000011    0.00    119.99   
    30. A(C   0,C   5,H  11)          120.01  0.000003   -0.00    120.01   
    31. D(H   7,C   1,C   0,C   5)    179.95 -0.000021    0.04    180.00   
    32. D(H   7,C   1,C   0,H   6)     -0.05 -0.000022    0.05     -0.01   
    33. D(C   2,C   1,C   0,H   6)   -179.97  0.000016   -0.03   -180.01   
    34. D(C   2,C   1,C   0,C   5)      0.03  0.000017   -0.04     -0.00   
    35. D(H   8,C   2,C   1,C   0)    179.96 -0.000019    0.04    180.00   
    36. D(C   3,C   2,C   1,C   0)     -0.06 -0.000030    0.06      0.01   
    37. D(C   3,C   2,C   1,H   7)   -179.98  0.000008   -0.02   -179.99   
    38. D(H   8,C   2,C   1,H   7)      0.04  0.000018   -0.04      0.00   
    39. D(H   9,C   3,C   2,H   8)     -0.02 -0.000006    0.01     -0.00   
    40. D(H   9,C   3,C   2,C   1)   -180.00  0.000004   -0.01   -180.01   
    41. D(C   4,C   3,C   2,H   8)   -179.98  0.000007   -0.02   -180.00   
    42. D(C   4,C   3,C   2,C   1)      0.03  0.000018   -0.04     -0.00   
    43. D(H  10,C   4,C   3,C   2)   -180.00 -0.000003    0.01   -179.99   
    44. D(C   5,C   4,C   3,H   9)   -179.96  0.000021   -0.04   -180.00   
    45. D(C   5,C   4,C   3,C   2)      0.01  0.000007   -0.02     -0.00   
    46. D(H  10,C   4,C   3,H   9)      0.03  0.000010   -0.02      0.01   
    47. D(H  11,C   5,C   4,H  10)      0.00  0.000004   -0.01     -0.01   
    48. D(C   0,C   5,C   4,H  10)    179.98 -0.000010    0.02    180.00   
    49. D(C   0,C   5,C   4,C   3)     -0.04 -0.000020    0.04      0.01   
    50. D(H  11,C   5,C   0,H   6)     -0.01 -0.000005    0.01      0.01   
    51. D(H  11,C   5,C   0,C   1)    179.99 -0.000006    0.01    180.00   
    52. D(H  11,C   5,C   4,C   3)    179.99 -0.000006    0.01    180.00   
    53. D(C   4,C   5,C   0,H   6)   -179.98  0.000009   -0.02   -180.00   
    54. D(C   4,C   5,C   0,C   1)      0.01  0.000008   -0.02     -0.00   
    ----------------------------------------------------------------------------

         *************************************************************
         *                GEOMETRY OPTIMIZATION CYCLE   2            *
         *************************************************************
---------------------------------
CARTESIAN COORDINATES (ANGSTROEM)
---------------------------------
  C     -1.364729   -2.474868    0.001262
  C      0.033553   -2.474874    0.001736
  C      0.732676   -1.264204    0.001106
  C      0.033551   -0.053148    0.000159
  C     -1.364503   -0.053160   -0.000245
  C     -2.063709   -1.264070    0.000240
  H     -1.911336   -3.421712    0.001638
  H      0.579971   -3.421838    0.002571
  H      1.825968   -1.264103    0.001419
  H      0.580489    0.893501   -0.000233
  H     -1.911299    0.893580   -0.001092
  H     -3.157005   -1.263885   -0.000084

----------------------------
CARTESIAN COORDINATES (A.U.)
----------------------------
  NO LB      ZA    FRAG    MASS        X           Y           Z
   0 C     6.0000    0    12.011         -2.578963816396886         -4.676822743873810          0.002383988034460
   1 C     6.0000    0    12.011          0.063406653199443         -4.676834037608598          0.003280754497720
   2 C     6.0000    0    12.011          1.384557147882414         -2.388999797685995          0.002089187488705
   3 C     6.0000    0    12.011          0.063402999088799         -0.100435819749847          0.000299864826299
   4 C     6.0000    0    12.011         -2.578536799352658         -0.100458699759915         -0.000463033557502
   5 C     6.0000    0    12.011         -3.899844702742945         -2.388745516603943          0.000454091305428
   6 H     1.0000    0     1.008         -3.611901596070065         -6.466098764472024          0.003095593804384
   7 H     1.0000    0     1.008          1.095986217294538         -6.466336157840072          0.004859240842131
   8 H     1.0000    0     1.008          3.450578999267762         -2.388808077477942          0.002681645133463
   9 H     1.0000    0     1.008          1.096965976244336          1.688471940261329         -0.000440818477294
  10 H     1.0000    0     1.008         -3.611831072869833          1.688622282197604         -0.002063260044251
  11 H     1.0000    0     1.008         -5.965875586805658         -2.388397314294424         -0.000158045416293

--------------------------------
INTERNAL COORDINATES (ANGSTROEM)
--------------------------------
 C      0   0   0   0.000000     0.000     0.000
 C      1   0   0   1.398282     0.000     0.000
 C      2   1   0   1.398032   120.005     0.000
 C      3   2   1   1.398368   119.998     0.000
 C      4   3   2   1.398054   119.997     0.000
 C      1   2   3   1.398073   119.998     0.000
 H      1   2   3   1.093295   119.997   179.993
 H      2   1   3   1.093304   119.986   180.002
 H      3   2   1   1.093292   120.010   180.003
 H      4   3   2   1.093291   119.985   179.994
 H      5   4   3   1.093300   120.008   180.006
 H      6   1   2   1.093297   120.007   180.003

---------------------------
INTERNAL COORDINATES (A.U.)
---------------------------
 C      0   0   0   0.000000     0.000     0.000
 C      1   0   0   2.642371     0.000     0.000
 C      2   1   0   2.641898   120.005     0.000
 C      3   2   1   2.642532   119.998     0.000
 C      4   3   2   2.641940   119.997     0.000
 C      1   2   3   2.641974   119.998     0.000
 H      1   2   3   2.066028   119.997   179.993
 H      2   1   3   2.066045   119.986   180.002
 H      3   2   1   2.066022   120.010   180.003
 H      4   3   2   2.066021   119.985   179.994
 H      5   4   3   2.066037   120.008   180.006
 H      6   1   2   2.066031   120.007   180.003



           ************************************************************
           *        Program running with 4 parallel MPI-processes     *
           *              working on a common directory               *
           ************************************************************
           ************************************************************
           *              Shut down parallel processing               *
           ************************************************************


           ************************************************************
           *        Program running with 4 parallel MPI-processes     *
           *              working on a common directory               *
           ************************************************************

Diagonalization of the overlap matrix:
Smallest eigenvalue                        ... 3.223e-04
Time for diagonalization                   ...    0.005 sec
Threshold for overlap eigenvalues          ... 1.000e-08
Number of eigenvalues below threshold      ... 0
Time for construction of square roots      ...    0.002 sec
Total time needed                          ...    0.007 sec

-------------------
DFT GRID GENERATION
-------------------

General Integration Accuracy     IntAcc      ...  5.670
Radial Grid Type                 RadialGrid  ... Gauss-Chebyshev
Angular Grid (max. acc.)         AngularGrid ... Lebedev-770
Angular grid pruning method      GridPruning ... 3 (G Style)
Weight generation scheme         WeightScheme... Becke
Basis function cutoff            BFCut       ...    1.0000e-11
Integration weight cutoff        WCut        ...    1.0000e-14
Grids for H and He will be reduced by one unit

# of grid points (after initial pruning)     ... 257220 (   0.0 sec)
# of grid points (after weights+screening)   ... 237345 (   0.3 sec)
nearest neighbour list constructed           ...    0.0 sec
Grid point re-assignment to atoms done       ...    0.1 sec
Grid point division into batches done        ...    5.5 sec
Reduced shell lists constructed in    6.0 sec

Total number of grid points                  ...   237345
Total number of batches                      ...     3714
Average number of points per batch           ...       63
Average number of grid points per atom       ...    19779
Average number of shells per batch           ...    46.20 (85.56%)
Average number of basis functions per batch  ...    99.46 (87.25%)
Average number of large shells per batch     ...    39.27 (85.00%)
Average number of large basis fcns per batch ...    83.50 (83.95%)
Maximum spatial batch extension              ...   3.57,  3.74, 13.48 au
Average spatial batch extension              ...   0.20,  0.21,  0.25 au

Time for grid setup =    8.724 sec

--------------
SCF ITERATIONS
--------------
ITER       Energy         Delta-E        Max-DP      RMS-DP      [F,P]     Damp
               ***  Starting incremental Fock matrix formation  ***
                      *** Initiating the SOSCF procedure ***
                      *** Re-Reading the Fockian *** 
                      *** Removing any level shift *** 
ITER      Energy       Delta-E        Grad      Rot      Max-DP    RMS-DP
  0   -232.08467632 -232.0846763245  0.001384  0.001384  0.002493  0.000181
               *** Restarting incremental Fock matrix formation ***
  1   -232.08472110  -0.0000447786  0.000419  0.000571  0.001218  0.000065
  2   -232.08472280  -0.0000017004  0.000325  0.000251  0.000567  0.000031
  3   -232.08472462  -0.0000018116  0.000039  0.000043  0.000117  0.000006
  4   -232.08472464  -0.0000000213  0.000016  0.000043  0.000038  0.000002
  5   -232.08472464  -0.0000000003  0.000015  0.000022  0.000040  0.000002
  6   -232.08472464  -0.0000000029  0.000003  0.000003  0.000012  0.000001
                 **** Energy Check signals convergence ****
              ***Rediagonalizing the Fockian in SOSCF/NRSCF***

               *****************************************************
               *                     SUCCESS                       *
               *           SCF CONVERGED AFTER   7 CYCLES          *
               *****************************************************

Total Energy       :         -232.08472464 Eh           -6315.34642 eV
  Last Energy change         ...   -2.2976e-10  Tolerance :   1.0000e-08
  Last MAX-Density change    ...    2.6594e-06  Tolerance :   1.0000e-07
             **** THE GBW FILE WAS UPDATED (orca-benzene.gbw) ****
             **** DENSITY FILE WAS UPDATED (orca-benzene.scfp.tmp) ****
             **** ENERGY FILE WAS UPDATED (orca-benzene.en.tmp) ****
Total SCF time: 0 days 0 hours 0 min 26 sec 
           ************************************************************
           *              Shut down parallel processing               *
           ************************************************************

-------------------------   --------------------
FINAL SINGLE POINT ENERGY      -232.084724639918
-------------------------   --------------------



           ************************************************************
           *        Program running with 4 parallel MPI-processes     *
           *              working on a common directory               *
           ************************************************************
------------------------------------------------------------------------------
                         ORCA SCF GRADIENT CALCULATION
------------------------------------------------------------------------------

Gradient of the Kohn-Sham DFT energy:
Kohn-Sham wavefunction type      ... RKS
Hartree-Fock exchange scaling    ...    0.200
Number of operators              ...    1
Number of atoms                  ...   12
Basis set dimensions             ...  114
Integral neglect threshold       ... 2.5e-11
Integral primitive cutoff        ... 2.5e-12

Nuclear repulsion gradient       ... done
One Electron Gradient            ... done
Pre-screening matrix             ... done
Starting the two electron gradient:
Two electron gradient done
Exchange-correlation gradient    ... done

------------------
CARTESIAN GRADIENT
------------------

   1   C   :    0.000253786    0.000591753    0.000001967
   2   C   :   -0.000240391    0.000666998    0.000006024
   3   C   :   -0.000620329   -0.000171734   -0.000010149
   4   C   :   -0.000458496   -0.000443675   -0.000001076
   5   C   :    0.000422755   -0.000544961    0.000013536
   6   C   :    0.000648410   -0.000082968   -0.000009102
   7   H   :   -0.000001077   -0.000004977   -0.000003580
   8   H   :   -0.000011327   -0.000015355    0.000002513
   9   H   :    0.000002997    0.000011435   -0.000000777
  10   H   :    0.000024657   -0.000010866    0.000002971
  11   H   :   -0.000015513   -0.000002631   -0.000005735
  12   H   :   -0.000005472    0.000006980    0.000003407

Norm of the cartesian gradient     ...    0.001625949
RMS gradient                       ...    0.000270991
MAX gradient                       ...    0.000666998

-------
TIMINGS
-------

Total SCF gradient time            ...       13.738 sec

One electron gradient       ....       0.047 sec  (  0.3%)
Prescreening matrices       ....       0.075 sec  (  0.5%)
Two electron gradient       ....       2.570 sec  ( 18.7%)
XC gradient                 ....       5.781 sec  ( 42.1%)
           ************************************************************
           *              Shut down parallel processing               *
           ************************************************************
------------------------------------------------------------------------------
                         ORCA GEOMETRY RELAXATION STEP
------------------------------------------------------------------------------

Reading the OPT-File                    .... done
Getting information on internals        .... done
Copying old internal coords+grads       .... done
Making the new internal coordinates     .... (new redundants).... done
Validating the new internal coordinates .... (new redundants).... done
Calculating the B-matrix                .... done
Calculating the G,G- and P matrices     .... done
Transforming gradient to internals      .... done
Projecting the internal gradient        .... done
Number of atoms                         ....  12
Number of internal coordinates          ....  54
Current Energy                          ....  -232.084724640 Eh
Current gradient norm                   ....     0.001625949 Eh/bohr
Maximum allowed component of the step   ....  0.300
Current trust radius                    ....  0.300
Updating the Hessian (BFGS)             .... done
Forming the augmented Hessian           .... done
Diagonalizing the augmented Hessian     .... done
Last element of RFO vector              ....  0.999995813
Lowest eigenvalues of augmented Hessian:
 -0.000004544  0.025959499  0.025979723  0.025991007  0.025999624
Length of the computed step             ....  0.002893892
The final length of the internal step   ....  0.002893892
Converting the step to cartesian space:
 Initial RMS(Int)=    0.0003938089
Transforming coordinates:
 Iter   0:  RMS(Cart)=    0.0006419024 RMS(Int)=    1.9118884925
 Iter   1:  RMS(Cart)=    0.0000000199 RMS(Int)=    0.0000000214
done
Storing new coordinates                 .... done

                                .--------------------.
          ----------------------|Geometry convergence|---------------------
          Item                value                 Tolerance   Converged
          -----------------------------------------------------------------
          Energy change      -0.00022998            0.00000500      NO
          RMS gradient        0.00021649            0.00010000      NO
          MAX gradient        0.00072341            0.00030000      NO
          RMS step            0.00039381            0.00200000      YES
          MAX step            0.00129126            0.00400000      YES
          ....................................................
          Max(Bonds)      0.0007      Max(Angles)    0.01
          Max(Dihed)        0.01      Max(Improp)    0.00
          -----------------------------------------------------------------

       The step convergence is overachieved with 
       reasonable convergence on the gradient
       Convergence will therefore be signaled now


                    ***********************HURRAY********************
                    ***        THE OPTIMIZATION HAS CONVERGED     ***
                    *************************************************


    ---------------------------------------------------------------------------
                         Redundant Internal Coordinates

                          --- Optimized Parameters ---  
                            (Angstroem and degrees)

        Definition                    OldVal   dE/dq     Step     FinalVal
    ----------------------------------------------------------------------------
     1. B(C   1,C   0)                1.3983 -0.000601  0.0006    1.3989   
     2. B(C   2,C   1)                1.3980 -0.000723  0.0007    1.3987   
     3. B(C   3,C   2)                1.3984 -0.000544  0.0005    1.3989   
     4. B(C   4,C   3)                1.3981 -0.000701  0.0007    1.3987   
     5. B(C   5,C   4)                1.3983 -0.000605  0.0006    1.3989   
     6. B(C   5,C   0)                1.3981 -0.000698  0.0007    1.3987   
     7. B(H   6,C   0)                1.0933  0.000005 -0.0001    1.0932   
     8. B(H   7,C   1)                1.0933  0.000008 -0.0001    1.0932   
     9. B(H   8,C   2)                1.0933  0.000003 -0.0001    1.0932   
    10. B(H   9,C   3)                1.0933  0.000003 -0.0001    1.0932   
    11. B(H  10,C   4)                1.0933  0.000005 -0.0001    1.0932   
    12. B(H  11,C   5)                1.0933  0.000005 -0.0001    1.0932   
    13. A(C   1,C   0,C   5)          120.00 -0.000004    0.00    120.00   
    14. A(C   1,C   0,H   6)          120.00  0.000000   -0.00    120.00   
    15. A(C   5,C   0,H   6)          120.01  0.000003   -0.00    120.00   
    16. A(C   2,C   1,H   7)          120.01  0.000009   -0.00    120.01   
    17. A(C   0,C   1,C   2)          120.00  0.000018   -0.00    120.00   
    18. A(C   0,C   1,H   7)          119.99 -0.000027    0.00    119.99   
    19. A(C   3,C   2,H   8)          119.99 -0.000006    0.00    119.99   
    20. A(C   1,C   2,H   8)          120.01  0.000017   -0.00    120.01   
    21. A(C   1,C   2,C   3)          120.00 -0.000011    0.00    120.00   
    22. A(C   4,C   3,H   9)          120.02  0.000034   -0.01    120.01   
    23. A(C   2,C   3,H   9)          119.99 -0.000021    0.00    119.99   
    24. A(C   2,C   3,C   4)          120.00 -0.000013    0.00    120.00   
    25. A(C   3,C   4,H  10)          120.01  0.000010   -0.00    120.01   
    26. A(C   3,C   4,C   5)          120.00  0.000011   -0.00    120.00   
    27. A(C   5,C   4,H  10)          119.99 -0.000021    0.00    119.99   
    28. A(C   0,C   5,C   4)          120.00 -0.000001    0.00    120.00   
    29. A(C   4,C   5,H  11)          119.99 -0.000007    0.00    119.99   
    30. A(C   0,C   5,H  11)          120.01  0.000008   -0.00    120.01   
    31. D(H   7,C   1,C   0,C   5)    180.00 -0.000001    0.00    180.00   
    32. D(H   7,C   1,C   0,H   6)     -0.01 -0.000002    0.00     -0.00   
    33. D(C   2,C   1,C   0,H   6)    179.99 -0.000003    0.01    180.00   
    34. D(C   2,C   1,C   0,C   5)     -0.00 -0.000002    0.00      0.00   
    35. D(H   8,C   2,C   1,C   0)   -180.00  0.000002   -0.00   -180.00   
    36. D(C   3,C   2,C   1,C   0)      0.01  0.000004   -0.01     -0.00   
    37. D(C   3,C   2,C   1,H   7)   -179.99  0.000002   -0.01   -180.00   
    38. D(H   8,C   2,C   1,H   7)      0.00 -0.000000    0.00      0.00   
    39. D(H   9,C   3,C   2,H   8)     -0.00 -0.000000    0.00     -0.00   
    40. D(H   9,C   3,C   2,C   1)    179.99 -0.000003    0.01    180.00   
    41. D(C   4,C   3,C   2,H   8)    180.00  0.000000   -0.00    180.00   
    42. D(C   4,C   3,C   2,C   1)     -0.00 -0.000002    0.01      0.00   
    43. D(H  10,C   4,C   3,C   2)   -179.99  0.000003   -0.01   -180.00   
    44. D(C   5,C   4,C   3,H   9)    180.00 -0.000001    0.00    180.00   
    45. D(C   5,C   4,C   3,C   2)     -0.00 -0.000001    0.00      0.00   
    46. D(H  10,C   4,C   3,H   9)      0.01  0.000003   -0.01      0.00   
    47. D(H  11,C   5,C   4,H  10)     -0.01 -0.000003    0.01     -0.00   
    48. D(C   0,C   5,C   4,H  10)    180.00 -0.000001    0.00    180.00   
    49. D(C   0,C   5,C   4,C   3)      0.01  0.000003   -0.01     -0.00   
    50. D(H  11,C   5,C   0,H   6)      0.01  0.000002   -0.00      0.00   
    51. D(H  11,C   5,C   0,C   1)   -180.00  0.000001   -0.00   -180.00   
    52. D(H  11,C   5,C   4,C   3)   -180.00  0.000001   -0.00   -180.00   
    53. D(C   4,C   5,C   0,H   6)   -180.00 -0.000000    0.00   -180.00   
    54. D(C   4,C   5,C   0,C   1)     -0.00 -0.000001    0.00      0.00   
    ----------------------------------------------------------------------------
                 *******************************************************
                 *** FINAL ENERGY EVALUATION AT THE STATIONARY POINT ***
                 ***               (AFTER    2 CYCLES)               ***
                 *******************************************************
---------------------------------
CARTESIAN COORDINATES (ANGSTROEM)
---------------------------------
  C     -1.365017   -2.475414    0.001261
  C      0.033837   -2.475446    0.001698
  C      0.733270   -1.264166    0.001161
  C      0.033886   -0.052662    0.000152
  C     -1.364830   -0.052632   -0.000297
  C     -2.064323   -1.264040    0.000266
  H     -1.911613   -3.422203    0.001683
  H      0.580282   -3.422326    0.002485
  H      1.826510   -1.264089    0.001500
  H      0.580733    0.893981   -0.000272
  H     -1.911540    0.894094   -0.001087
  H     -3.157565   -1.263878   -0.000072

----------------------------
CARTESIAN COORDINATES (A.U.)
----------------------------
  NO LB      ZA    FRAG    MASS        X           Y           Z
   0 C     6.0000    0    12.011         -2.579509231890955         -4.677854875888887          0.002382011850659
   1 C     6.0000    0    12.011          0.063943206934162         -4.677914277920553          0.003208286878212
   2 C     6.0000    0    12.011          1.385678811352921         -2.388926738003194          0.002194452604030
   3 C     6.0000    0    12.011          0.064035659357744         -0.099516654817936          0.000287974596497
   4 C     6.0000    0    12.011         -2.579155746798809         -0.099460262601963         -0.000562037503760
   5 C     6.0000    0    12.011         -3.901005600411939         -2.388690045234533          0.000502495986149
   6 H     1.0000    0     1.008         -3.612424697526363         -6.467026358139322          0.003179588100483
   7 H     1.0000    0     1.008          1.096573274113187         -6.467259577057678          0.004695103112333
   8 H     1.0000    0     1.008          3.451603615344239         -2.388781336649697          0.002834277550620
   9 H     1.0000    0     1.008          1.097426199159264          1.689378880886492         -0.000513389517467
  10 H     1.0000    0     1.008         -3.612288035889103          1.689592404429465         -0.002054228635425
  11 H     1.0000    0     1.008         -5.966933035005099         -2.388383865909833         -0.000135326585081

--------------------------------
INTERNAL COORDINATES (ANGSTROEM)
--------------------------------
 C      0   0   0   0.000000     0.000     0.000
 C      1   0   0   1.398855     0.000     0.000
 C      2   1   0   1.398716   120.002     0.000
 C      3   2   1   1.398885   119.999     0.000
 C      4   3   2   1.398717   119.998     0.000
 C      1   2   3   1.398734   119.998     0.000
 H      1   2   3   1.093241   119.997   180.000
 H      2   1   3   1.093245   119.991   179.998
 H      3   2   1   1.093240   120.008   180.000
 H      4   3   2   1.093240   119.989   180.000
 H      5   4   3   1.093244   120.007   180.000
 H      6   1   2   1.093242   120.006   180.000

---------------------------
INTERNAL COORDINATES (A.U.)
---------------------------
 C      0   0   0   0.000000     0.000     0.000
 C      1   0   0   2.643453     0.000     0.000
 C      2   1   0   2.643189   120.002     0.000
 C      3   2   1   2.643510   119.999     0.000
 C      4   3   2   2.643192   119.998     0.000
 C      1   2   3   2.643224   119.998     0.000
 H      1   2   3   2.065926   119.997   180.000
 H      2   1   3   2.065934   119.991   179.998
 H      3   2   1   2.065925   120.008   180.000
 H      4   3   2   2.065924   119.989   180.000
 H      5   4   3   2.065932   120.007   180.000
 H      6   1   2   2.065928   120.006   180.000

---------------------
BASIS SET INFORMATION
---------------------
There are 2 groups of distinct atoms

 Group   1 Type C   : 7s4p1d contracted to 3s2p1d pattern {511/31/1}
 Group   2 Type H   : 4s1p contracted to 2s1p pattern {31/1}

Atom   0C    basis set group =>   1
Atom   1C    basis set group =>   1
Atom   2C    basis set group =>   1
Atom   3C    basis set group =>   1
Atom   4C    basis set group =>   1
Atom   5C    basis set group =>   1
Atom   6H    basis set group =>   2
Atom   7H    basis set group =>   2
Atom   8H    basis set group =>   2
Atom   9H    basis set group =>   2
Atom  10H    basis set group =>   2
Atom  11H    basis set group =>   2


           ************************************************************
           *        Program running with 4 parallel MPI-processes     *
           *              working on a common directory               *
           ************************************************************
------------------------------------------------------------------------------
                           ORCA GTO INTEGRAL CALCULATION
------------------------------------------------------------------------------

                         BASIS SET STATISTICS AND STARTUP INFO

 # of primitive gaussian shells          ...  102
 # of primitive gaussian functions       ...  186
 # of contracted shell                   ...   54
 # of contracted basis functions         ...  114
 Highest angular momentum                ...    2
 Maximum contraction depth               ...    5
 Integral package used                   ... LIBINT
 Integral threshhold            Thresh   ...  2.500e-11
 Primitive cut-off              TCut     ...  2.500e-12


                              INTEGRAL EVALUATION

 One electron integrals                  ... done
 Pre-screening matrix                    ... done
 Shell pair data                         ... done (   0.001 sec)

           ************************************************************
           *              Shut down parallel processing               *
           ************************************************************


           ************************************************************
           *        Program running with 4 parallel MPI-processes     *
           *              working on a common directory               *
           ************************************************************
-------------------------------------------------------------------------------
                                 ORCA SCF
-------------------------------------------------------------------------------

------------
SCF SETTINGS
------------
Hamiltonian:
 Density Functional     Method          .... DFT(GTOs)
 Exchange Functional    Exchange        .... B88
   X-Alpha parameter    XAlpha          ....  0.666667
   Becke's b parameter  XBeta           ....  0.004200
 Correlation Functional Correlation     .... LYP
 LDA part of GGA corr.  LDAOpt          .... VWN-3
 Gradients option       PostSCFGGA      .... off
 Hybrid DFT is turned on
   Fraction HF Exchange ScalHFX         ....  0.200000
   Scaling of DF-GGA-X  ScalDFX         ....  0.720000
   Scaling of DF-GGA-C  ScalDFC         ....  0.810000
   Scaling of DF-LDA-C  ScalLDAC        ....  1.000000
   Perturbative correction              ....  0.000000
   NL short-range parameter             ....  4.800000


General Settings:
[...]
     35       0.210657  -0.483396   0.000111   0.000064   0.406858  -0.364701
                 12         13         14         15         16         17    
      0       0.000023  -0.000013  -0.000055   0.000025  -0.144694  -0.137395
      1      -0.000045   0.000033   0.000030  -0.000025  -0.250560  -0.237520
      2      -0.070547   0.048079   0.092188  -0.053908   0.000049   0.000113
      3      -0.000002  -0.000027  -0.000019  -0.000033  -0.144695   0.137356
      4       0.000003   0.000055   0.000030   0.000068   0.250614  -0.237504
      5       0.006438   0.085123   0.000645   0.106801  -0.000199   0.000206
      6      -0.000025  -0.000012   0.000072   0.000002   0.289361   0.274434
      7       0.000049   0.000021  -0.000053  -0.000036  -0.000042  -0.000269
      8       0.076913   0.037068  -0.092803  -0.052888   0.000149   0.000078
      9      -0.000026   0.000011  -0.000063   0.000020  -0.144686   0.136999
     10       0.000044  -0.000039   0.000018  -0.000032  -0.250607   0.237762
     11       0.070505  -0.048146   0.092192  -0.053947   0.000046  -0.000103
     12       0.000003   0.000024  -0.000015  -0.000029  -0.144662  -0.137014
     13      -0.000002  -0.000053   0.000018   0.000060   0.250597   0.237751
     14      -0.006355  -0.085131   0.000579   0.106799  -0.000189  -0.000197
     15       0.000025   0.000016   0.000085   0.000011   0.289393  -0.274369
     16      -0.000050  -0.000019  -0.000053  -0.000033  -0.000004  -0.000208
     17      -0.076945  -0.036993  -0.092802  -0.052849   0.000145  -0.000097
     18      -0.000151   0.000112   0.000093  -0.000058  -0.144033  -0.151352
     19       0.000297  -0.000204  -0.000317   0.000178  -0.249338  -0.261657
     20       0.471742  -0.321740  -0.489731   0.286391   0.000468   0.000089
     21       0.000003   0.000202  -0.000030   0.000189  -0.143938   0.151250
     22      -0.000034  -0.000356   0.000019  -0.000363   0.249449  -0.261680
     23      -0.042866  -0.569366  -0.003394  -0.567400  -0.000236   0.000130
     24       0.000160   0.000075  -0.000109  -0.000104   0.287975   0.302320
     25      -0.000308  -0.000163   0.000369   0.000175  -0.000025  -0.000352
     26      -0.514500  -0.247700   0.492985   0.280954  -0.000212   0.000180
     27       0.000157  -0.000117   0.000094  -0.000074  -0.144136   0.150936
     28      -0.000304   0.000202  -0.000337   0.000177  -0.249324   0.261917
     29      -0.471704   0.321809  -0.489747   0.286575   0.000494  -0.000158
     30      -0.000001  -0.000194  -0.000033   0.000179  -0.144072  -0.151031
     31       0.000035   0.000366   0.000003  -0.000382   0.249330   0.261857
     32       0.042722   0.569392  -0.003093  -0.567384  -0.000323  -0.000222
     33      -0.000158  -0.000071  -0.000093  -0.000093   0.288009  -0.302254
     34       0.000326   0.000173   0.000387   0.000196  -0.000070  -0.000222
     35       0.514505   0.247620   0.492983   0.280773  -0.000201  -0.000024
                 18         19         20         21         22         23    
      0      -0.000030   0.022063  -0.084599  -0.024800  -0.047701  -0.015957
      1       0.000040  -0.087734  -0.057564   0.014390   0.029139   0.003597
      2       0.067207   0.000075  -0.000008  -0.000016  -0.000033  -0.000004
      3       0.000029   0.036916   0.079248   0.024825   0.034134  -0.036941
      4      -0.000062   0.075908  -0.072405   0.014403   0.023797  -0.017187
      5      -0.067203  -0.000045   0.000080   0.000002  -0.000006   0.000002
      6      -0.000016  -0.112248   0.010168  -0.000065   0.004899  -0.001220
      7       0.000050   0.007064   0.076751  -0.028727   0.014430   0.056194
      8       0.067182  -0.000042  -0.000047   0.000018  -0.000005  -0.000038
      9       0.000012   0.022127  -0.084475  -0.024873   0.047722   0.015944
     10      -0.000038  -0.087800  -0.057586   0.014314  -0.029095  -0.003580
     11      -0.067183   0.000065   0.000008  -0.000017   0.000032   0.000004
     12      -0.000012   0.036934   0.079114   0.024869  -0.034148   0.036966
     13       0.000033   0.076002  -0.072437   0.014315  -0.023770   0.017164
     14       0.067205  -0.000035   0.000068   0.000002   0.000006  -0.000000
     15       0.000025  -0.112262   0.010201   0.000034  -0.004888   0.001278
     16      -0.000034   0.006912   0.076764  -0.028692  -0.014435  -0.056205
     17      -0.067208  -0.000049  -0.000029   0.000016   0.000005   0.000036
     18       0.000102   0.351999  -0.323513  -0.352496  -0.478521  -0.136263
     19      -0.000246  -0.284886   0.070913   0.203582   0.277689   0.073688
     20      -0.402727   0.000221  -0.000034  -0.000262  -0.000340  -0.000106
     21      -0.000144   0.404432   0.254882   0.352742   0.353748  -0.349720
     22       0.000226   0.292874   0.018463   0.203663   0.207801  -0.198178
     23       0.402707  -0.000003   0.000009  -0.000034  -0.000002  -0.000011
     24       0.000133  -0.122233   0.011053  -0.000054   0.004338  -0.001098
     25      -0.000196   0.049712   0.545056  -0.407430   0.142502   0.556288
     26      -0.402599  -0.000060  -0.000335   0.000261  -0.000112  -0.000338
     27      -0.000208   0.352176  -0.323185  -0.352722   0.478483   0.135612
     28       0.000299  -0.285109   0.070844   0.203677  -0.277730  -0.073337
     29       0.402597   0.000284  -0.000148  -0.000260   0.000352   0.000108
     30       0.000141   0.404516   0.254523   0.352663  -0.353923   0.349555
     31      -0.000271   0.293120   0.018356   0.203591  -0.207962   0.198138
     32      -0.402712  -0.000074   0.000115  -0.000045   0.000002  -0.000010
     33      -0.000121  -0.122241   0.011168  -0.000012  -0.004350   0.001070
     34       0.000324   0.049253   0.545109  -0.407108  -0.143100  -0.556393
     35       0.402737  -0.000002  -0.000465   0.000277   0.000111   0.000363
                 24         25         26         27         28         29    
      0       0.270600  -0.052277  -0.057999   0.131145   0.212364  -0.224488
      1      -0.156561   0.030184   0.115900   0.005077  -0.217470  -0.020145
      2       0.000184  -0.000037  -0.000092   0.000037   0.000208  -0.000057
      3      -0.270555  -0.052280  -0.117711  -0.081956  -0.064595   0.302209
      4      -0.156496  -0.030182  -0.096448   0.064528   0.139855   0.167734
      5       0.000013   0.000002   0.000023  -0.000066  -0.000109  -0.000010
      6       0.000204  -0.000010   0.096281  -0.026843   0.071207  -0.135998
      7       0.312756  -0.060364  -0.041965  -0.149193  -0.305925  -0.161258
      8      -0.000198   0.000038   0.000059   0.000086   0.000219   0.000058
      9       0.270823   0.052292  -0.058207   0.130792  -0.212231   0.225082
     10      -0.156211  -0.030184   0.116210   0.005094   0.216912   0.020084
     11       0.000189   0.000038  -0.000094   0.000038  -0.000210   0.000060
     12      -0.270786   0.052278  -0.117690  -0.081557   0.065164  -0.302449
     13      -0.156128   0.030172  -0.096713   0.064687  -0.139505  -0.167340
     14       0.000017  -0.000002   0.000025  -0.000068   0.000111   0.000012
     15      -0.000207  -0.000003   0.096218  -0.027061  -0.071648   0.135776
     16       0.312725   0.060373  -0.041508  -0.149308   0.306271   0.160679
     17      -0.000203  -0.000038   0.000057   0.000087  -0.000220  -0.000061
     18      -0.227625   0.349631   0.366467  -0.287162  -0.339657   0.109351
     19       0.131004  -0.201845  -0.109958   0.265367   0.087078  -0.235110
     20      -0.000156   0.000246   0.000186  -0.000253  -0.000170   0.000183
     21       0.227162   0.349719   0.462408   0.055211  -0.102401  -0.341840
     22       0.130674   0.201825   0.231703   0.169715   0.144361  -0.204896
     23      -0.000010  -0.000012   0.000006  -0.000082  -0.000124   0.000019
     24       0.000285  -0.000037   0.118669  -0.033146   0.081700  -0.156256
     25      -0.262872   0.403784   0.144093   0.513186   0.352637   0.186219
     26       0.000160  -0.000249  -0.000057  -0.000336  -0.000192  -0.000173
     27      -0.227333  -0.349581   0.367059  -0.286655   0.338590  -0.110175
     28       0.131594   0.201950  -0.110229   0.265012  -0.087300   0.236084
     29      -0.000171  -0.000254   0.000194  -0.000255   0.000167  -0.000190
     30       0.226909  -0.349668   0.462638   0.054503   0.101089   0.341460
     31       0.131320  -0.201934   0.231733   0.169281  -0.145080   0.205629
     32      -0.000029   0.000018  -0.000004  -0.000086   0.000137  -0.000024
     33      -0.000339  -0.000067   0.118640  -0.033243  -0.082432   0.155881
     34      -0.262728  -0.403778   0.143187   0.513416  -0.353340  -0.184997
     35       0.000180   0.000257  -0.000059  -0.000343   0.000201   0.000171
                 30         31         32         33         34         35    
      0       0.016984   0.010587   0.022403  -0.009448  -0.024293   0.018795
      1       0.029421   0.022587   0.036325  -0.009009  -0.043926   0.032563
      2      -0.000013  -0.000011  -0.000016   0.000003   0.000020  -0.000015
      3       0.017015   0.024704  -0.002265   0.023914   0.010263  -0.018758
      4      -0.029483  -0.042833  -0.000995  -0.043537  -0.010488   0.032509
      5       0.000025   0.000035  -0.000000   0.000036   0.000010  -0.000027
      6      -0.033954  -0.024462   0.042918   0.037231  -0.035880  -0.037606
      7       0.000003   0.002134   0.001222   0.002643   0.002722  -0.000003
      8      -0.000011  -0.000009   0.000013   0.000010  -0.000013  -0.000012
      9       0.016965  -0.010620  -0.022418  -0.009476  -0.024294  -0.018824
     10       0.029373  -0.022626  -0.036332  -0.009041  -0.043882  -0.032585
     11      -0.000013   0.000011   0.000016   0.000003   0.000020   0.000015
     12       0.017003  -0.024714   0.002218   0.023944   0.010268   0.018785
     13      -0.029441   0.042819   0.001079  -0.043541  -0.010483  -0.032520
     14       0.000025  -0.000036   0.000000   0.000036   0.000010   0.000027
     15      -0.033989   0.024489  -0.042925   0.037158  -0.035928   0.037574
     16       0.000006  -0.002138  -0.001214   0.002628   0.002737  -0.000008
     17      -0.000010   0.000009  -0.000013   0.000010  -0.000013   0.000012
     18      -0.203371  -0.142966  -0.249280   0.073262   0.278232  -0.203346
     19      -0.352273  -0.251555  -0.429499   0.118621   0.484002  -0.352221
     20       0.000159   0.000112   0.000191  -0.000052  -0.000216   0.000157
     21      -0.203704  -0.287688   0.003546  -0.275096  -0.082586   0.202908
     22       0.352964   0.498501  -0.001612   0.479012   0.134889  -0.351579
     23      -0.000295  -0.000414   0.000004  -0.000396  -0.000112   0.000291
     24       0.406550   0.284802  -0.499588  -0.414168   0.399120   0.406773
     25       0.000019  -0.001956  -0.001151  -0.002995  -0.003053   0.000020
     26       0.000126   0.000091  -0.000155  -0.000126   0.000127   0.000127
     27      -0.203151   0.143335   0.249457   0.073520   0.278148   0.203607
     28      -0.351700   0.252057   0.429581   0.118997   0.483594   0.352485
     29       0.000160  -0.000113  -0.000192  -0.000053  -0.000218  -0.000158
     30      -0.203555   0.287780  -0.002979  -0.275335  -0.082598  -0.203131
     31       0.352496  -0.498381   0.000624   0.479149   0.134833   0.351762
     32      -0.000295   0.000415  -0.000002  -0.000398  -0.000113  -0.000292
     33       0.406944  -0.285081   0.499662  -0.413352   0.399632  -0.406413
     34      -0.000059   0.002008   0.001057  -0.002914  -0.003131   0.000056
     35       0.000125  -0.000090   0.000154  -0.000125   0.000126  -0.000126


-----------
IR SPECTRUM
-----------

 Mode    freq (cm**-1)   T**2         TX         TY         TZ
-------------------------------------------------------------------
   6:       418.53    0.000000  ( -0.000269   0.000238  -0.000517)
   7:       418.56    0.000000  ( -0.000464  -0.000300   0.000054)
   8:       620.11    0.000000  ( -0.000019  -0.000172  -0.000167)
   9:       620.12    0.000000  ( -0.000159   0.000059  -0.000368)
  10:       695.08   81.221774  ( -0.001835   0.003705   9.012311)
  11:       733.97    0.000000  (  0.000029  -0.000025   0.000329)
  12:       870.45    0.000000  ( -0.000039   0.000010  -0.000448)
  13:       870.46    0.000000  (  0.000026  -0.000016   0.000108)
  14:      1003.85    0.000000  (  0.000404   0.000470   0.000032)
  15:      1003.86    0.000000  (  0.000278  -0.000423  -0.000095)
  16:      1012.87    0.000000  ( -0.000596   0.000139  -0.000059)
  17:      1019.26    0.000000  ( -0.000137  -0.000145  -0.000007)
  18:      1039.37    0.000000  ( -0.000343   0.000341  -0.000007)
  19:      1058.07    4.636131  (  2.144377   0.194362   0.000682)
  20:      1058.08    4.649669  ( -0.194539   2.147515  -0.001455)
  21:      1161.87    0.000007  (  0.000280  -0.002596  -0.000239)
  22:      1184.03    0.000008  ( -0.000608  -0.002743   0.000016)
  23:      1184.06    0.000007  ( -0.002604   0.000768   0.000026)
  24:      1364.32    0.000002  ( -0.000673  -0.001304  -0.000039)
  25:      1365.73    0.000000  (  0.000136  -0.000065   0.000032)
  26:      1509.32    7.320780  (  2.605440   0.729701   0.000378)
  27:      1509.34    7.333374  ( -0.729009   2.608048  -0.001820)
  28:      1651.47    0.000008  ( -0.002482  -0.001291   0.000021)
  29:      1651.55    0.000008  ( -0.001259   0.002451  -0.000014)
  30:      3165.58    0.000030  (  0.001230  -0.005374  -0.000038)
  31:      3175.33    0.000004  (  0.000203  -0.001925  -0.000081)
  32:      3175.36    0.000012  ( -0.002352   0.002631   0.000048)
  33:      3189.81   31.298500  (  4.022718  -3.887960   0.003786)
  34:      3189.84   31.288114  ( -3.887137  -4.022223   0.001340)
  35:      3199.11    0.000005  ( -0.001322  -0.001737   0.000002)

The first frequency considered to be a vibration is 6
The total number of vibrations considered is 30


--------------------------
THERMOCHEMISTRY AT 298.15K
--------------------------

Temperature         ... 298.15 K
Pressure            ... 1.00 atm
Total Mass          ... 78.11 AMU

Throughout the following assumptions are being made:
  (1) The electronic state is orbitally nondegenerate
  (2) There are no thermally accessible electronically excited states
  (3) Hindered rotations indicated by low frequency modes) are not
      treated as such but are treated as vibrations and this may
      case some error
  (4) All equations used are the standard statistical mechanics
      equations for an ideal gas
  (5) All vibrations are strinctly harmonic


------------
INNER ENERGY
------------

The inner energy is: U= E(el) + E(ZPE) + E(vib) + E(rot) + E(trans)
    E(el)   - is the total energy from the electronic structure calculation
              = E(kin-el) + E(nuc-el) + E(el-el) + E(nuc-nuc)
    E(ZPE)  - the the zero temperature vibrational energy from the frequency calculation
    E(vib)  - the the finite temperature correction to E(ZPE) due to population
              of excietd vibrational states
    E(rot)  - is the rotational thermal energy
    E(trans)- is the translational thermal energy

Summary of contributions to the inner energy U:
Electronic energy                ...   -232.08472709 Eh
Zero point energy                ...      0.10051132 Eh      63.07 kcal/mol
Thermal vibrational correction   ...      0.00153648 Eh       0.96 kcal/mol
Thermal rotational correction    ...      0.00141627 Eh       0.89 kcal/mol
Thermal translational correction ...      0.00141627 Eh       0.89 kcal/mol
-----------------------------------------------------------------------
Total thermal energy                   -231.97984675 Eh


Summary of corrections to the electronic energy:
(perhaps to be used in another calculation)
Total thermal correction                  0.00436903 Eh       2.74 kcal/mol
Non-thermal (ZPE) correction              0.10051132 Eh      63.07 kcal/mol
-----------------------------------------------------------------------
Total correction                          0.10488034 Eh      65.81 kcal/mol


--------
ENTHALPY
--------

The enthalpy is H = U + kB*T
                kB is Boltzmann's constant
Total free energy                 ...   -231.97984675 Eh 
Thermal Enthalpy correction       ...      0.00094421 Eh       0.59 kcal/mol
-----------------------------------------------------------------------
Total Enthalpy                    ...   -231.97890254 Eh


-------
ENTROPY
-------

The entropy contributions are T*S = T*(S(el)+S(vib)+S(rot)+S(trans)
     S(el)   - electronic entropy
     S(vib)  - vibrational entropy
     S(rot)  - rotational entropy
     S(trans)- translational entropy
The entropies will be listed as mutliplied by the temperature to get
units of energy

Electronic entropy                ...      0.00000000 Eh      0.00 kcal/mol
Vibrational entropy               ...      0.00205335 Eh      1.29 kcal/mol
Rotational entropy                ...      0.01116168 Eh      7.00 kcal/mol
Translational entropy             ...      0.01852142 Eh     11.62 kcal/mol
-----------------------------------------------------------------------
Final entropy term                ...      0.03173646 Eh     19.91 kcal/mol


CAUTION: The rotational entropy is not quite correctly treated here
         because it includes a symmetry number that is not yet correctly
         implemented in ORCA!
For a nonlinear molecule the correct rotational entropy is:
    S(rot) = R*(ln(qrot/sn)+1.5)
    R    = 8.31441 J/mol/K = 1.987191683e-3 kcal/mol/K
    qrot = 91140.7800853
    sn is the rotational symmetry number. We have assumed 3 here
       if it is different for your molecule then you should correct
       the printed rotational entropy by manually evaluating the equation
       as given above

For convenience we print out the resulting values for sn=1 - 12:
 sn= 1  qrot/sn=   91140.7801 T*S(rot)=     7.65 kcal/mol T*S(tot)=    20.57 kcal/mol
 sn= 2  qrot/sn=   45570.3900 T*S(rot)=     7.24 kcal/mol T*S(tot)=    20.16 kcal/mol
 sn= 3  qrot/sn=   30380.2600 T*S(rot)=     7.00 kcal/mol T*S(tot)=    19.91 kcal/mol
 sn= 4  qrot/sn=   22785.1950 T*S(rot)=     6.83 kcal/mol T*S(tot)=    19.74 kcal/mol
 sn= 5  qrot/sn=   18228.1560 T*S(rot)=     6.70 kcal/mol T*S(tot)=    19.61 kcal/mol
 sn= 6  qrot/sn=   15190.1300 T*S(rot)=     6.59 kcal/mol T*S(tot)=    19.50 kcal/mol
 sn= 7  qrot/sn=   13020.1114 T*S(rot)=     6.50 kcal/mol T*S(tot)=    19.41 kcal/mol
 sn= 8  qrot/sn=   11392.5975 T*S(rot)=     6.42 kcal/mol T*S(tot)=    19.33 kcal/mol
 sn= 9  qrot/sn=   10126.7533 T*S(rot)=     6.35 kcal/mol T*S(tot)=    19.26 kcal/mol
 sn=10  qrot/sn=    9114.0780 T*S(rot)=     6.29 kcal/mol T*S(tot)=    19.20 kcal/mol
 sn=11  qrot/sn=    8285.5255 T*S(rot)=     6.23 kcal/mol T*S(tot)=    19.15 kcal/mol
 sn=12  qrot/sn=    7595.0650 T*S(rot)=     6.18 kcal/mol T*S(tot)=    19.09 kcal/mol


-------------------
GIBBS FREE ENTHALPY
-------------------

The Gibbs free enthalpy is G = H - T*S

Total enthalpy                    ...   -231.97890254 Eh 
Total entropy correction          ...     -0.03173646 Eh    -19.91 kcal/mol
-----------------------------------------------------------------------
Final Gibbs free enthalpy         ...   -232.01063899 Eh

For completeness - the Gibbs free enthalpy minus the electronic energy
G-E(el)                           ...      0.07408810 Eh     46.49 kcal/mol


Timings for individual modules:

Sum of individual times         ...      655.303 sec (=  10.922 min)
GTO integral calculation        ...        6.802 sec (=   0.113 min)   1.0 %
SCF iterations                  ...       90.048 sec (=   1.501 min)  13.7 %
SCF Gradient evaluation         ...       31.727 sec (=   0.529 min)   4.8 %
Geometry relaxation             ...        1.622 sec (=   0.027 min)   0.2 %
Analytical frequency calculation...      525.104 sec (=   8.752 min)  80.1 %
                             ****ORCA TERMINATED NORMALLY****
TOTAL RUN TIME: 0 days 0 hours 11 minutes 2 seconds 589 msec
